M 0.00000 0 (5.00, 5.00, 0.00), (450.00, 285.00), 30.00
M 0.00000 1 (490.00, 285.00, 0.00), (200.00, 285.00), 30.00
M 0.00000 2 (150.00, 240.00, 0.00), (1.00, 285.00), 30.00
s 0.032821055 _1_ RTR  --- 0 message 32 [0 0 0 0] ------- [1:255 -1:255 32 0] 
s 0.033056055 _1_ MAC  --- 0 message 84 [0 ffffffff 1 800] ------- [1:255 -1:255 32 0] 
s 0.178591360 _2_ RTR  --- 1 message 32 [0 0 0 0] ------- [2:255 -1:255 32 0] 
s 0.178926360 _2_ MAC  --- 1 message 84 [0 ffffffff 2 800] ------- [2:255 -1:255 32 0] 
s 1.113402886 _0_ RTR  --- 2 message 32 [0 0 0 0] ------- [0:255 -1:255 32 0] 
s 1.113637886 _0_ MAC  --- 2 message 84 [0 ffffffff 0 800] ------- [0:255 -1:255 32 0] 
r 1.114310693 _2_ MAC  --- 2 message 32 [0 ffffffff 0 800] ------- [0:255 -1:255 32 0] 
r 1.114335693 _2_ RTR  --- 2 message 32 [0 ffffffff 0 800] ------- [0:255 -1:255 32 0] 
s 10.000000000 _0_ AGT  --- 3 tcp 40 [0 0 0 0] ------- [0:0 2:0 32 0] [0 0] 0 0
r 10.000000000 _0_ RTR  --- 3 tcp 40 [0 0 0 0] ------- [0:0 2:0 32 0] [0 0] 0 0
s 12.530838300 _0_ RTR  --- 4 message 32 [0 0 0 0] ------- [0:255 -1:255 32 0] 
s 12.531393300 _0_ MAC  --- 4 message 84 [0 ffffffff 0 800] ------- [0:255 -1:255 32 0] 
r 12.532065790 _1_ MAC  --- 4 message 32 [0 ffffffff 0 800] ------- [0:255 -1:255 32 0] 
r 12.532090790 _1_ RTR  --- 4 message 32 [0 ffffffff 0 800] ------- [0:255 -1:255 32 0] 
s 13.000000000 _0_ AGT  --- 5 tcp 40 [0 0 0 0] ------- [0:0 2:0 32 0] [0 0] 0 0
r 13.000000000 _0_ RTR  --- 5 tcp 40 [0 0 0 0] ------- [0:0 2:0 32 0] [0 0] 0 0
s 13.122405979 _2_ RTR  --- 6 message 32 [0 0 0 0] ------- [2:255 -1:255 32 0] 
s 13.122680979 _2_ MAC  --- 6 message 84 [0 ffffffff 2 800] ------- [2:255 -1:255 32 0] 
r 13.123353642 _1_ MAC  --- 6 message 32 [0 ffffffff 2 800] ------- [2:255 -1:255 32 0] 
r 13.123378642 _1_ RTR  --- 6 message 32 [0 ffffffff 2 800] ------- [2:255 -1:255 32 0] 
s 13.826076487 _2_ RTR  --- 7 message 44 [0 0 0 0] ------- [2:255 -1:255 32 0] 
s 13.826591487 _2_ MAC  --- 7 message 96 [0 ffffffff 2 800] ------- [2:255 -1:255 32 0] 
r 13.827360150 _1_ MAC  --- 7 message 44 [0 ffffffff 2 800] ------- [2:255 -1:255 32 0] 
r 13.827385150 _1_ RTR  --- 7 message 44 [0 ffffffff 2 800] ------- [2:255 -1:255 32 0] 
s 14.283862945 _1_ RTR  --- 8 message 32 [0 0 0 0] ------- [1:255 -1:255 32 0] 
s 14.284477945 _1_ MAC  --- 8 message 84 [0 ffffffff 1 800] ------- [1:255 -1:255 32 0] 
r 14.285150530 _0_ MAC  --- 8 message 32 [0 ffffffff 1 800] ------- [1:255 -1:255 32 0] 
r 14.285150608 _2_ MAC  --- 8 message 32 [0 ffffffff 1 800] ------- [1:255 -1:255 32 0] 
r 14.285175530 _0_ RTR  --- 8 message 32 [0 ffffffff 1 800] ------- [1:255 -1:255 32 0] 
r 14.285175608 _2_ RTR  --- 8 message 32 [0 ffffffff 1 800] ------- [1:255 -1:255 32 0] 
s 19.000000000 _0_ AGT  --- 9 tcp 40 [0 0 0 0] ------- [0:0 2:0 32 0] [0 0] 0 0
r 19.000000000 _0_ RTR  --- 9 tcp 40 [0 0 0 0] ------- [0:0 2:0 32 0] [0 0] 0 0
s 24.540601855 _1_ RTR  --- 10 message 44 [0 0 0 0] ------- [1:255 -1:255 32 0] 
s 24.540976855 _1_ MAC  --- 10 message 96 [0 ffffffff 1 800] ------- [1:255 -1:255 32 0] 
r 24.541745519 _2_ MAC  --- 10 message 44 [0 ffffffff 1 800] ------- [1:255 -1:255 32 0] 
r 24.541745689 _0_ MAC  --- 10 message 44 [0 ffffffff 1 800] ------- [1:255 -1:255 32 0] 
r 24.541770519 _2_ RTR  --- 10 message 44 [0 ffffffff 1 800] ------- [1:255 -1:255 32 0] 
r 24.541770689 _0_ RTR  --- 10 message 44 [0 ffffffff 1 800] ------- [1:255 -1:255 32 0] 
s 24.541770689 _0_ RTR  --- 3 tcp 80 [0 0 0 0] ------- [0:0 2:0 32 1] [0 0] 0 0
s 24.541770689 _0_ RTR  --- 5 tcp 80 [0 0 0 0] ------- [0:0 2:0 32 1] [0 0] 0 0
D 24.541770689 _0_ IFQ  ARP 3 tcp 80 [0 0 0 800] ------- [0:0 2:0 32 1] [0 0] 0 0
s 24.541770689 _0_ RTR  --- 9 tcp 80 [0 0 0 0] ------- [0:0 2:0 32 1] [0 0] 0 0
D 24.541770689 _0_ IFQ  ARP 5 tcp 80 [0 0 0 800] ------- [0:0 2:0 32 1] [0 0] 0 0
s 24.541965689 _0_ MAC  --- 0 ARP 80 [0 ffffffff 0 806] ------- [REQUEST 0/0 0/1]
r 24.542606522 _1_ MAC  --- 0 ARP 28 [0 ffffffff 0 806] ------- [REQUEST 0/0 0/1]
s 24.542735689 _0_ MAC  --- 0 ARP 80 [0 ffffffff 0 806] ------- [REQUEST 0/0 0/1]
r 24.543376522 _1_ MAC  --- 0 ARP 28 [0 ffffffff 0 806] ------- [REQUEST 0/0 0/1]
s 24.543566522 _1_ MAC  --- 0 RTS 44 [4fe 0 1 0] 
r 24.543919355 _0_ MAC  --- 0 RTS 44 [4fe 0 1 0] 
s 24.543929355 _0_ MAC  --- 0 CTS 38 [3c4 1 0 0] 
r 24.544234189 _1_ MAC  --- 0 CTS 38 [3c4 1 0 0] 
s 24.544244189 _1_ MAC  --- 0 ARP 80 [13a 0 1 806] ------- [REPLY 1/1 0/0]
r 24.544885022 _0_ MAC  --- 0 ARP 28 [13a 0 1 806] ------- [REPLY 1/1 0/0]
s 24.544895022 _0_ MAC  --- 0 ACK 38 [0 1 0 0] 
r 24.545199855 _1_ MAC  --- 0 ACK 38 [0 1 0 0] 
s 24.545389022 _0_ MAC  --- 0 ARP 80 [0 ffffffff 0 806] ------- [REQUEST 0/0 0/1]
r 24.546029855 _1_ MAC  --- 0 ARP 28 [0 ffffffff 0 806] ------- [REQUEST 0/0 0/1]
s 24.546159855 _1_ MAC  --- 0 RTS 44 [4fe 0 1 0] 
r 24.546512689 _0_ MAC  --- 0 RTS 44 [4fe 0 1 0] 
s 24.546522689 _0_ MAC  --- 0 CTS 38 [3c4 1 0 0] 
r 24.546827522 _1_ MAC  --- 0 CTS 38 [3c4 1 0 0] 
s 24.546837522 _1_ MAC  --- 0 ARP 80 [13a 0 1 806] ------- [REPLY 1/1 0/0]
r 24.547478355 _0_ MAC  --- 0 ARP 28 [13a 0 1 806] ------- [REPLY 1/1 0/0]
s 24.547488355 _0_ MAC  --- 0 ACK 38 [0 1 0 0] 
r 24.547793189 _1_ MAC  --- 0 ACK 38 [0 1 0 0] 
s 24.547862355 _0_ MAC  --- 0 RTS 44 [69e 1 0 0] 
r 24.548215189 _1_ MAC  --- 0 RTS 44 [69e 1 0 0] 
s 24.548225189 _1_ MAC  --- 0 CTS 38 [564 0 0 0] 
r 24.548530022 _0_ MAC  --- 0 CTS 38 [564 0 0 0] 
s 24.548540022 _0_ MAC  --- 9 tcp 132 [13a 1 0 800] ------- [0:0 2:0 32 1] [0 0] 0 0
r 24.549596855 _1_ MAC  --- 9 tcp 80 [13a 1 0 800] ------- [0:0 2:0 32 1] [0 0] 1 0
s 24.549606855 _1_ MAC  --- 0 ACK 38 [0 0 0 0] 
r 24.549621855 _1_ RTR  --- 9 tcp 80 [13a 1 0 800] ------- [0:0 2:0 32 1] [0 0] 1 0
f 24.549621855 _1_ RTR  --- 9 tcp 80 [13a 1 0 800] ------- [0:0 2:0 31 2] [0 0] 1 0
r 24.549911689 _0_ MAC  --- 0 ACK 38 [0 0 0 0] 
s 24.550480855 _1_ MAC  --- 0 RTS 44 [4fe 0 1 0] 
r 24.550833689 _0_ MAC  --- 0 RTS 44 [4fe 0 1 0] 
s 24.550843689 _0_ MAC  --- 0 CTS 38 [3c4 1 0 0] 
r 24.551148522 _1_ MAC  --- 0 CTS 38 [3c4 1 0 0] 
s 24.551158522 _1_ MAC  --- 0 ARP 80 [13a 0 1 806] ------- [REPLY 1/1 0/0]
r 24.551799355 _0_ MAC  --- 0 ARP 28 [13a 0 1 806] ------- [REPLY 1/1 0/0]
s 24.551809355 _0_ MAC  --- 0 ACK 38 [0 1 0 0] 
r 24.552114189 _1_ MAC  --- 0 ACK 38 [0 1 0 0] 
s 24.552364189 _1_ MAC  --- 0 ARP 80 [0 ffffffff 1 806] ------- [REQUEST 1/1 0/2]
r 24.553004852 _2_ MAC  --- 0 ARP 28 [0 ffffffff 1 806] ------- [REQUEST 1/1 0/2]
r 24.553005022 _0_ MAC  --- 0 ARP 28 [0 ffffffff 1 806] ------- [REQUEST 1/1 0/2]
s 24.553119852 _2_ MAC  --- 0 RTS 44 [4fe 1 2 0] 
r 24.553472515 _1_ MAC  --- 0 RTS 44 [4fe 1 2 0] 
s 24.553482515 _1_ MAC  --- 0 CTS 38 [3c4 2 0 0] 
r 24.553787179 _2_ MAC  --- 0 CTS 38 [3c4 2 0 0] 
s 24.553797179 _2_ MAC  --- 0 ARP 80 [13a 1 2 806] ------- [REPLY 2/2 1/1]
r 24.554437842 _1_ MAC  --- 0 ARP 28 [13a 1 2 806] ------- [REPLY 2/2 1/1]
s 24.554447842 _1_ MAC  --- 0 ACK 38 [0 2 0 0] 
r 24.554752505 _2_ MAC  --- 0 ACK 38 [0 2 0 0] 
s 24.555321842 _1_ MAC  --- 0 RTS 44 [69e 2 1 0] 
r 24.555674505 _2_ MAC  --- 0 RTS 44 [69e 2 1 0] 
s 24.555684505 _2_ MAC  --- 0 CTS 38 [564 1 0 0] 
r 24.555989169 _1_ MAC  --- 0 CTS 38 [564 1 0 0] 
s 24.555999169 _1_ MAC  --- 9 tcp 132 [13a 2 1 800] ------- [0:0 2:0 31 2] [0 0] 1 0
r 24.557055832 _2_ MAC  --- 9 tcp 80 [13a 2 1 800] ------- [0:0 2:0 31 2] [0 0] 2 0
s 24.557065832 _2_ MAC  --- 0 ACK 38 [0 1 0 0] 
r 24.557080832 _2_ AGT  --- 9 tcp 80 [13a 2 1 800] ------- [0:0 2:0 31 2] [0 0] 2 0
s 24.557080832 _2_ AGT  --- 11 ack 40 [0 0 0 0] ------- [2:0 0:0 32 0] [0 0] 0 0
r 24.557080832 _2_ RTR  --- 11 ack 40 [0 0 0 0] ------- [2:0 0:0 32 0] [0 0] 0 0
s 24.557080832 _2_ RTR  --- 11 ack 60 [0 0 0 0] ------- [2:0 0:0 32 1] [0 0] 0 0
r 24.557370495 _1_ MAC  --- 0 ACK 38 [0 1 0 0] 
s 24.557759832 _2_ MAC  --- 0 RTS 44 [5fe 1 2 0] 
r 24.558112495 _1_ MAC  --- 0 RTS 44 [5fe 1 2 0] 
s 24.558122495 _1_ MAC  --- 0 CTS 38 [4c4 2 0 0] 
r 24.558427159 _2_ MAC  --- 0 CTS 38 [4c4 2 0 0] 
s 24.558437159 _2_ MAC  --- 11 ack 112 [13a 1 2 800] ------- [2:0 0:0 32 1] [0 0] 0 0
r 24.559333822 _1_ MAC  --- 11 ack 60 [13a 1 2 800] ------- [2:0 0:0 32 1] [0 0] 1 0
s 24.559343822 _1_ MAC  --- 0 ACK 38 [0 2 0 0] 
r 24.559358822 _1_ RTR  --- 11 ack 60 [13a 1 2 800] ------- [2:0 0:0 32 1] [0 0] 1 0
f 24.559358822 _1_ RTR  --- 11 ack 60 [13a 1 2 800] ------- [2:0 0:0 31 0] [0 0] 1 0
r 24.559648485 _2_ MAC  --- 0 ACK 38 [0 2 0 0] 
s 24.559877822 _1_ MAC  --- 0 RTS 44 [5fe 0 1 0] 
r 24.560230655 _0_ MAC  --- 0 RTS 44 [5fe 0 1 0] 
s 24.560240655 _0_ MAC  --- 0 CTS 38 [4c4 1 0 0] 
r 24.560545489 _1_ MAC  --- 0 CTS 38 [4c4 1 0 0] 
s 24.560555489 _1_ MAC  --- 11 ack 112 [13a 0 1 800] ------- [2:0 0:0 31 0] [0 0] 1 0
r 24.561452322 _0_ MAC  --- 11 ack 60 [13a 0 1 800] ------- [2:0 0:0 31 0] [0 0] 2 0
s 24.561462322 _0_ MAC  --- 0 ACK 38 [0 1 0 0] 
r 24.561477322 _0_ AGT  --- 11 ack 60 [13a 0 1 800] ------- [2:0 0:0 31 0] [0 0] 2 0
s 24.561477322 _0_ AGT  --- 12 tcp 1040 [0 0 0 0] ------- [0:0 2:0 32 0] [1 0] 0 0
r 24.561477322 _0_ RTR  --- 12 tcp 1040 [0 0 0 0] ------- [0:0 2:0 32 0] [1 0] 0 0
s 24.561477322 _0_ RTR  --- 12 tcp 1060 [0 0 0 0] ------- [0:0 2:0 32 1] [1 0] 0 0
r 24.561767155 _1_ MAC  --- 0 ACK 38 [0 1 0 0] 
s 24.561996322 _0_ MAC  --- 0 RTS 44 [253e 1 0 0] 
r 24.562349155 _1_ MAC  --- 0 RTS 44 [253e 1 0 0] 
s 24.562359155 _1_ MAC  --- 0 CTS 38 [2404 0 0 0] 
r 24.562663989 _0_ MAC  --- 0 CTS 38 [2404 0 0 0] 
s 24.562673989 _0_ MAC  --- 12 tcp 1112 [13a 1 0 800] ------- [0:0 2:0 32 1] [1 0] 0 0
r 24.571570822 _1_ MAC  --- 12 tcp 1060 [13a 1 0 800] ------- [0:0 2:0 32 1] [1 0] 1 0
s 24.571580822 _1_ MAC  --- 0 ACK 38 [0 0 0 0] 
r 24.571595822 _1_ RTR  --- 12 tcp 1060 [13a 1 0 800] ------- [0:0 2:0 32 1] [1 0] 1 0
f 24.571595822 _1_ RTR  --- 12 tcp 1060 [13a 1 0 800] ------- [0:0 2:0 31 2] [1 0] 1 0
r 24.571885655 _0_ MAC  --- 0 ACK 38 [0 0 0 0] 
s 24.572054822 _1_ MAC  --- 0 RTS 44 [253e 2 1 0] 
r 24.572407485 _2_ MAC  --- 0 RTS 44 [253e 2 1 0] 
s 24.572417485 _2_ MAC  --- 0 CTS 38 [2404 1 0 0] 
r 24.572722149 _1_ MAC  --- 0 CTS 38 [2404 1 0 0] 
s 24.572732149 _1_ MAC  --- 12 tcp 1112 [13a 2 1 800] ------- [0:0 2:0 31 2] [1 0] 1 0
r 24.581628812 _2_ MAC  --- 12 tcp 1060 [13a 2 1 800] ------- [0:0 2:0 31 2] [1 0] 2 0
s 24.581638812 _2_ MAC  --- 0 ACK 38 [0 1 0 0] 
r 24.581653812 _2_ AGT  --- 12 tcp 1060 [13a 2 1 800] ------- [0:0 2:0 31 2] [1 0] 2 0
s 24.581653812 _2_ AGT  --- 13 ack 40 [0 0 0 0] ------- [2:0 0:0 32 0] [1 0] 0 0
r 24.581653812 _2_ RTR  --- 13 ack 40 [0 0 0 0] ------- [2:0 0:0 32 0] [1 0] 0 0
s 24.581653812 _2_ RTR  --- 13 ack 60 [0 0 0 0] ------- [2:0 0:0 32 1] [1 0] 0 0
r 24.581943475 _1_ MAC  --- 0 ACK 38 [0 1 0 0] 
s 24.582052812 _2_ MAC  --- 0 RTS 44 [5fe 1 2 0] 
r 24.582405475 _1_ MAC  --- 0 RTS 44 [5fe 1 2 0] 
s 24.582415475 _1_ MAC  --- 0 CTS 38 [4c4 2 0 0] 
r 24.582720139 _2_ MAC  --- 0 CTS 38 [4c4 2 0 0] 
s 24.582730139 _2_ MAC  --- 13 ack 112 [13a 1 2 800] ------- [2:0 0:0 32 1] [1 0] 0 0
r 24.583626802 _1_ MAC  --- 13 ack 60 [13a 1 2 800] ------- [2:0 0:0 32 1] [1 0] 1 0
s 24.583636802 _1_ MAC  --- 0 ACK 38 [0 2 0 0] 
r 24.583651802 _1_ RTR  --- 13 ack 60 [13a 1 2 800] ------- [2:0 0:0 32 1] [1 0] 1 0
f 24.583651802 _1_ RTR  --- 13 ack 60 [13a 1 2 800] ------- [2:0 0:0 31 0] [1 0] 1 0
r 24.583941465 _2_ MAC  --- 0 ACK 38 [0 2 0 0] 
s 24.584210802 _1_ MAC  --- 0 RTS 44 [5fe 0 1 0] 
r 24.584563635 _0_ MAC  --- 0 RTS 44 [5fe 0 1 0] 
s 24.584573635 _0_ MAC  --- 0 CTS 38 [4c4 1 0 0] 
r 24.584878469 _1_ MAC  --- 0 CTS 38 [4c4 1 0 0] 
s 24.584888469 _1_ MAC  --- 13 ack 112 [13a 0 1 800] ------- [2:0 0:0 31 0] [1 0] 1 0
r 24.585785302 _0_ MAC  --- 13 ack 60 [13a 0 1 800] ------- [2:0 0:0 31 0] [1 0] 2 0
s 24.585795302 _0_ MAC  --- 0 ACK 38 [0 1 0 0] 
r 24.585810302 _0_ AGT  --- 13 ack 60 [13a 0 1 800] ------- [2:0 0:0 31 0] [1 0] 2 0
s 24.585810302 _0_ AGT  --- 14 tcp 1040 [0 0 0 0] ------- [0:0 2:0 32 0] [2 0] 0 0
r 24.585810302 _0_ RTR  --- 14 tcp 1040 [0 0 0 0] ------- [0:0 2:0 32 0] [2 0] 0 0
s 24.585810302 _0_ RTR  --- 14 tcp 1060 [0 0 0 0] ------- [0:0 2:0 32 1] [2 0] 0 0
s 24.585810302 _0_ AGT  --- 15 tcp 1040 [0 0 0 0] ------- [0:0 2:0 32 0] [3 0] 0 0
r 24.585810302 _0_ RTR  --- 15 tcp 1040 [0 0 0 0] ------- [0:0 2:0 32 0] [3 0] 0 0
s 24.585810302 _0_ RTR  --- 15 tcp 1060 [0 0 0 0] ------- [0:0 2:0 32 1] [3 0] 0 0
r 24.586100135 _1_ MAC  --- 0 ACK 38 [0 1 0 0] 
s 24.586369302 _0_ MAC  --- 0 RTS 44 [253e 1 0 0] 
r 24.586722135 _1_ MAC  --- 0 RTS 44 [253e 1 0 0] 
s 24.586732135 _1_ MAC  --- 0 CTS 38 [2404 0 0 0] 
r 24.587036969 _0_ MAC  --- 0 CTS 38 [2404 0 0 0] 
s 24.587046969 _0_ MAC  --- 14 tcp 1112 [13a 1 0 800] ------- [0:0 2:0 32 1] [2 0] 0 0
r 24.595943802 _1_ MAC  --- 14 tcp 1060 [13a 1 0 800] ------- [0:0 2:0 32 1] [2 0] 1 0
s 24.595953802 _1_ MAC  --- 0 ACK 38 [0 0 0 0] 
r 24.595968802 _1_ RTR  --- 14 tcp 1060 [13a 1 0 800] ------- [0:0 2:0 32 1] [2 0] 1 0
f 24.595968802 _1_ RTR  --- 14 tcp 1060 [13a 1 0 800] ------- [0:0 2:0 31 2] [2 0] 1 0
r 24.596258635 _0_ MAC  --- 0 ACK 38 [0 0 0 0] 
s 24.596388635 _0_ MAC  --- 0 RTS 44 [253e 1 0 0] 
r 24.596741469 _1_ MAC  --- 0 RTS 44 [253e 1 0 0] 
s 24.596751469 _1_ MAC  --- 0 CTS 38 [2404 0 0 0] 
r 24.597056302 _0_ MAC  --- 0 CTS 38 [2404 0 0 0] 
s 24.597066302 _0_ MAC  --- 15 tcp 1112 [13a 1 0 800] ------- [0:0 2:0 32 1] [3 0] 0 0
r 24.605963135 _1_ MAC  --- 15 tcp 1060 [13a 1 0 800] ------- [0:0 2:0 32 1] [3 0] 1 0
s 24.605973135 _1_ MAC  --- 0 ACK 38 [0 0 0 0] 
r 24.605988135 _1_ RTR  --- 15 tcp 1060 [13a 1 0 800] ------- [0:0 2:0 32 1] [3 0] 1 0
f 24.605988135 _1_ RTR  --- 15 tcp 1060 [13a 1 0 800] ------- [0:0 2:0 31 2] [3 0] 1 0
r 24.606277969 _0_ MAC  --- 0 ACK 38 [0 0 0 0] 
s 24.606467135 _1_ MAC  --- 0 RTS 44 [253e 2 1 0] 
r 24.606819799 _2_ MAC  --- 0 RTS 44 [253e 2 1 0] 
s 24.606829799 _2_ MAC  --- 0 CTS 38 [2404 1 0 0] 
r 24.607134462 _1_ MAC  --- 0 CTS 38 [2404 1 0 0] 
s 24.607144462 _1_ MAC  --- 14 tcp 1112 [13a 2 1 800] ------- [0:0 2:0 31 2] [2 0] 1 0
r 24.616041125 _2_ MAC  --- 14 tcp 1060 [13a 2 1 800] ------- [0:0 2:0 31 2] [2 0] 2 0
s 24.616051125 _2_ MAC  --- 0 ACK 38 [0 1 0 0] 
r 24.616066125 _2_ AGT  --- 14 tcp 1060 [13a 2 1 800] ------- [0:0 2:0 31 2] [2 0] 2 0
s 24.616066125 _2_ AGT  --- 16 ack 40 [0 0 0 0] ------- [2:0 0:0 32 0] [2 0] 0 0
r 24.616066125 _2_ RTR  --- 16 ack 40 [0 0 0 0] ------- [2:0 0:0 32 0] [2 0] 0 0
s 24.616066125 _2_ RTR  --- 16 ack 60 [0 0 0 0] ------- [2:0 0:0 32 1] [2 0] 0 0
r 24.616355789 _1_ MAC  --- 0 ACK 38 [0 1 0 0] 
s 24.616405789 _1_ MAC  --- 0 RTS 44 [253e 2 1 0] 
r 24.616758452 _2_ MAC  --- 0 RTS 44 [253e 2 1 0] 
s 24.616768452 _2_ MAC  --- 0 CTS 38 [2404 1 0 0] 
r 24.617073115 _1_ MAC  --- 0 CTS 38 [2404 1 0 0] 
s 24.617083115 _1_ MAC  --- 15 tcp 1112 [13a 2 1 800] ------- [0:0 2:0 31 2] [3 0] 1 0
r 24.625979779 _2_ MAC  --- 15 tcp 1060 [13a 2 1 800] ------- [0:0 2:0 31 2] [3 0] 2 0
s 24.625989779 _2_ MAC  --- 0 ACK 38 [0 1 0 0] 
r 24.626004779 _2_ AGT  --- 15 tcp 1060 [13a 2 1 800] ------- [0:0 2:0 31 2] [3 0] 2 0
s 24.626004779 _2_ AGT  --- 17 ack 40 [0 0 0 0] ------- [2:0 0:0 32 0] [3 0] 0 0
r 24.626004779 _2_ RTR  --- 17 ack 40 [0 0 0 0] ------- [2:0 0:0 32 0] [3 0] 0 0
s 24.626004779 _2_ RTR  --- 17 ack 60 [0 0 0 0] ------- [2:0 0:0 32 1] [3 0] 0 0
r 24.626294442 _1_ MAC  --- 0 ACK 38 [0 1 0 0] 
s 24.626363779 _2_ MAC  --- 0 RTS 44 [5fe 1 2 0] 
r 24.626716442 _1_ MAC  --- 0 RTS 44 [5fe 1 2 0] 
s 24.626726442 _1_ MAC  --- 0 CTS 38 [4c4 2 0 0] 
r 24.627031105 _2_ MAC  --- 0 CTS 38 [4c4 2 0 0] 
s 24.627041105 _2_ MAC  --- 16 ack 112 [13a 1 2 800] ------- [2:0 0:0 32 1] [2 0] 0 0
r 24.627937769 _1_ MAC  --- 16 ack 60 [13a 1 2 800] ------- [2:0 0:0 32 1] [2 0] 1 0
s 24.627947769 _1_ MAC  --- 0 ACK 38 [0 2 0 0] 
r 24.627962769 _1_ RTR  --- 16 ack 60 [13a 1 2 800] ------- [2:0 0:0 32 1] [2 0] 1 0
f 24.627962769 _1_ RTR  --- 16 ack 60 [13a 1 2 800] ------- [2:0 0:0 31 0] [2 0] 1 0
r 24.628252432 _2_ MAC  --- 0 ACK 38 [0 2 0 0] 
s 24.628541769 _1_ MAC  --- 0 RTS 44 [5fe 0 1 0] 
r 24.628894602 _0_ MAC  --- 0 RTS 44 [5fe 0 1 0] 
s 24.628904602 _0_ MAC  --- 0 CTS 38 [4c4 1 0 0] 
r 24.629209435 _1_ MAC  --- 0 CTS 38 [4c4 1 0 0] 
s 24.629219435 _1_ MAC  --- 16 ack 112 [13a 0 1 800] ------- [2:0 0:0 31 0] [2 0] 1 0
r 24.630116269 _0_ MAC  --- 16 ack 60 [13a 0 1 800] ------- [2:0 0:0 31 0] [2 0] 2 0
s 24.630126269 _0_ MAC  --- 0 ACK 38 [0 1 0 0] 
r 24.630141269 _0_ AGT  --- 16 ack 60 [13a 0 1 800] ------- [2:0 0:0 31 0] [2 0] 2 0
s 24.630141269 _0_ AGT  --- 18 tcp 1040 [0 0 0 0] ------- [0:0 2:0 32 0] [4 0] 0 0
r 24.630141269 _0_ RTR  --- 18 tcp 1040 [0 0 0 0] ------- [0:0 2:0 32 0] [4 0] 0 0
s 24.630141269 _0_ RTR  --- 18 tcp 1060 [0 0 0 0] ------- [0:0 2:0 32 1] [4 0] 0 0
r 24.630431102 _1_ MAC  --- 0 ACK 38 [0 1 0 0] 
s 24.630760269 _0_ MAC  --- 0 RTS 44 [253e 1 0 0] 
r 24.631113102 _1_ MAC  --- 0 RTS 44 [253e 1 0 0] 
s 24.631123102 _1_ MAC  --- 0 CTS 38 [2404 0 0 0] 
r 24.631427935 _0_ MAC  --- 0 CTS 38 [2404 0 0 0] 
s 24.631437935 _0_ MAC  --- 18 tcp 1112 [13a 1 0 800] ------- [0:0 2:0 32 1] [4 0] 0 0
r 24.640334769 _1_ MAC  --- 18 tcp 1060 [13a 1 0 800] ------- [0:0 2:0 32 1] [4 0] 1 0
s 24.640344769 _1_ MAC  --- 0 ACK 38 [0 0 0 0] 
r 24.640359769 _1_ RTR  --- 18 tcp 1060 [13a 1 0 800] ------- [0:0 2:0 32 1] [4 0] 1 0
f 24.640359769 _1_ RTR  --- 18 tcp 1060 [13a 1 0 800] ------- [0:0 2:0 31 2] [4 0] 1 0
r 24.640649602 _0_ MAC  --- 0 ACK 38 [0 0 0 0] 
s 24.640829432 _2_ MAC  --- 0 RTS 44 [5fe 1 2 0] 
r 24.641182095 _1_ MAC  --- 0 RTS 44 [5fe 1 2 0] 
s 24.641192095 _1_ MAC  --- 0 CTS 38 [4c4 2 0 0] 
r 24.641496759 _2_ MAC  --- 0 CTS 38 [4c4 2 0 0] 
s 24.641506759 _2_ MAC  --- 17 ack 112 [13a 1 2 800] ------- [2:0 0:0 32 1] [3 0] 0 0
r 24.642403422 _1_ MAC  --- 17 ack 60 [13a 1 2 800] ------- [2:0 0:0 32 1] [3 0] 1 0
s 24.642413422 _1_ MAC  --- 0 ACK 38 [0 2 0 0] 
r 24.642428422 _1_ RTR  --- 17 ack 60 [13a 1 2 800] ------- [2:0 0:0 32 1] [3 0] 1 0
f 24.642428422 _1_ RTR  --- 17 ack 60 [13a 1 2 800] ------- [2:0 0:0 31 0] [3 0] 1 0
r 24.642718085 _2_ MAC  --- 0 ACK 38 [0 2 0 0] 
s 24.643127422 _1_ MAC  --- 0 RTS 44 [253e 2 1 0] 
r 24.643480085 _2_ MAC  --- 0 RTS 44 [253e 2 1 0] 
s 24.643490085 _2_ MAC  --- 0 CTS 38 [2404 1 0 0] 
r 24.643794749 _1_ MAC  --- 0 CTS 38 [2404 1 0 0] 
s 24.643804749 _1_ MAC  --- 18 tcp 1112 [13a 2 1 800] ------- [0:0 2:0 31 2] [4 0] 1 0
r 24.652701412 _2_ MAC  --- 18 tcp 1060 [13a 2 1 800] ------- [0:0 2:0 31 2] [4 0] 2 0
s 24.652711412 _2_ MAC  --- 0 ACK 38 [0 1 0 0] 
r 24.652726412 _2_ AGT  --- 18 tcp 1060 [13a 2 1 800] ------- [0:0 2:0 31 2] [4 0] 2 0
s 24.652726412 _2_ AGT  --- 19 ack 40 [0 0 0 0] ------- [2:0 0:0 32 0] [4 0] 0 0
r 24.652726412 _2_ RTR  --- 19 ack 40 [0 0 0 0] ------- [2:0 0:0 32 0] [4 0] 0 0
s 24.652726412 _2_ RTR  --- 19 ack 60 [0 0 0 0] ------- [2:0 0:0 32 1] [4 0] 0 0
r 24.653016075 _1_ MAC  --- 0 ACK 38 [0 1 0 0] 
s 24.653106075 _1_ MAC  --- 0 RTS 44 [5fe 0 1 0] 
r 24.653458909 _0_ MAC  --- 0 RTS 44 [5fe 0 1 0] 
s 24.653468909 _0_ MAC  --- 0 CTS 38 [4c4 1 0 0] 
r 24.653773742 _1_ MAC  --- 0 CTS 38 [4c4 1 0 0] 
s 24.653783742 _1_ MAC  --- 17 ack 112 [13a 0 1 800] ------- [2:0 0:0 31 0] [3 0] 1 0
r 24.654680575 _0_ MAC  --- 17 ack 60 [13a 0 1 800] ------- [2:0 0:0 31 0] [3 0] 2 0
s 24.654690575 _0_ MAC  --- 0 ACK 38 [0 1 0 0] 
r 24.654705575 _0_ AGT  --- 17 ack 60 [13a 0 1 800] ------- [2:0 0:0 31 0] [3 0] 2 0
s 24.654705575 _0_ AGT  --- 20 tcp 1040 [0 0 0 0] ------- [0:0 2:0 32 0] [5 0] 0 0
r 24.654705575 _0_ RTR  --- 20 tcp 1040 [0 0 0 0] ------- [0:0 2:0 32 0] [5 0] 0 0
s 24.654705575 _0_ RTR  --- 20 tcp 1060 [0 0 0 0] ------- [0:0 2:0 32 1] [5 0] 0 0
r 24.654995409 _1_ MAC  --- 0 ACK 38 [0 1 0 0] 
s 24.655504575 _0_ MAC  --- 0 RTS 44 [253e 1 0 0] 
r 24.655857409 _1_ MAC  --- 0 RTS 44 [253e 1 0 0] 
s 24.655867409 _1_ MAC  --- 0 CTS 38 [2404 0 0 0] 
r 24.656172242 _0_ MAC  --- 0 CTS 38 [2404 0 0 0] 
s 24.656182242 _0_ MAC  --- 20 tcp 1112 [13a 1 0 800] ------- [0:0 2:0 32 1] [5 0] 0 0
r 24.665079075 _1_ MAC  --- 20 tcp 1060 [13a 1 0 800] ------- [0:0 2:0 32 1] [5 0] 1 0
s 24.665089075 _1_ MAC  --- 0 ACK 38 [0 0 0 0] 
r 24.665104075 _1_ RTR  --- 20 tcp 1060 [13a 1 0 800] ------- [0:0 2:0 32 1] [5 0] 1 0
f 24.665104075 _1_ RTR  --- 20 tcp 1060 [13a 1 0 800] ------- [0:0 2:0 31 2] [5 0] 1 0
r 24.665393909 _0_ MAC  --- 0 ACK 38 [0 0 0 0] 
s 24.665643075 _1_ MAC  --- 0 RTS 44 [253e 2 1 0] 
r 24.665995739 _2_ MAC  --- 0 RTS 44 [253e 2 1 0] 
s 24.666005739 _2_ MAC  --- 0 CTS 38 [2404 1 0 0] 
r 24.666310402 _1_ MAC  --- 0 CTS 38 [2404 1 0 0] 
s 24.666320402 _1_ MAC  --- 20 tcp 1112 [13a 2 1 800] ------- [0:0 2:0 31 2] [5 0] 1 0
r 24.675217065 _2_ MAC  --- 20 tcp 1060 [13a 2 1 800] ------- [0:0 2:0 31 2] [5 0] 2 0
s 24.675227065 _2_ MAC  --- 0 ACK 38 [0 1 0 0] 
r 24.675242065 _2_ AGT  --- 20 tcp 1060 [13a 2 1 800] ------- [0:0 2:0 31 2] [5 0] 2 0
s 24.675242065 _2_ AGT  --- 21 ack 40 [0 0 0 0] ------- [2:0 0:0 32 0] [5 0] 0 0
r 24.675242065 _2_ RTR  --- 21 ack 40 [0 0 0 0] ------- [2:0 0:0 32 0] [5 0] 0 0
s 24.675242065 _2_ RTR  --- 21 ack 60 [0 0 0 0] ------- [2:0 0:0 32 1] [5 0] 0 0
r 24.675531729 _1_ MAC  --- 0 ACK 38 [0 1 0 0] 
s 24.675621065 _2_ MAC  --- 0 RTS 44 [5fe 1 2 0] 
r 24.675973729 _1_ MAC  --- 0 RTS 44 [5fe 1 2 0] 
s 24.675983729 _1_ MAC  --- 0 CTS 38 [4c4 2 0 0] 
r 24.676288392 _2_ MAC  --- 0 CTS 38 [4c4 2 0 0] 
s 24.676298392 _2_ MAC  --- 19 ack 112 [13a 1 2 800] ------- [2:0 0:0 32 1] [4 0] 0 0
r 24.677195055 _1_ MAC  --- 19 ack 60 [13a 1 2 800] ------- [2:0 0:0 32 1] [4 0] 1 0
s 24.677205055 _1_ MAC  --- 0 ACK 38 [0 2 0 0] 
r 24.677220055 _1_ RTR  --- 19 ack 60 [13a 1 2 800] ------- [2:0 0:0 32 1] [4 0] 1 0
f 24.677220055 _1_ RTR  --- 19 ack 60 [13a 1 2 800] ------- [2:0 0:0 31 0] [4 0] 1 0
r 24.677509719 _2_ MAC  --- 0 ACK 38 [0 2 0 0] 
s 24.677619055 _1_ MAC  --- 0 RTS 44 [5fe 0 1 0] 
r 24.677971889 _0_ MAC  --- 0 RTS 44 [5fe 0 1 0] 
s 24.677981889 _0_ MAC  --- 0 CTS 38 [4c4 1 0 0] 
r 24.678286722 _1_ MAC  --- 0 CTS 38 [4c4 1 0 0] 
s 24.678296722 _1_ MAC  --- 19 ack 112 [13a 0 1 800] ------- [2:0 0:0 31 0] [4 0] 1 0
r 24.679193555 _0_ MAC  --- 19 ack 60 [13a 0 1 800] ------- [2:0 0:0 31 0] [4 0] 2 0
s 24.679203555 _0_ MAC  --- 0 ACK 38 [0 1 0 0] 
r 24.679218555 _0_ AGT  --- 19 ack 60 [13a 0 1 800] ------- [2:0 0:0 31 0] [4 0] 2 0
s 24.679218555 _0_ AGT  --- 22 tcp 1040 [0 0 0 0] ------- [0:0 2:0 32 0] [6 0] 0 0
r 24.679218555 _0_ RTR  --- 22 tcp 1040 [0 0 0 0] ------- [0:0 2:0 32 0] [6 0] 0 0
s 24.679218555 _0_ RTR  --- 22 tcp 1060 [0 0 0 0] ------- [0:0 2:0 32 1] [6 0] 0 0
s 24.679218555 _0_ AGT  --- 23 tcp 1040 [0 0 0 0] ------- [0:0 2:0 32 0] [7 0] 0 0
r 24.679218555 _0_ RTR  --- 23 tcp 1040 [0 0 0 0] ------- [0:0 2:0 32 0] [7 0] 0 0
s 24.679218555 _0_ RTR  --- 23 tcp 1060 [0 0 0 0] ------- [0:0 2:0 32 1] [7 0] 0 0
r 24.679508389 _1_ MAC  --- 0 ACK 38 [0 1 0 0] 
s 24.679757555 _0_ MAC  --- 0 RTS 44 [253e 1 0 0] 
r 24.680110389 _1_ MAC  --- 0 RTS 44 [253e 1 0 0] 
s 24.680120389 _1_ MAC  --- 0 CTS 38 [2404 0 0 0] 
r 24.680425222 _0_ MAC  --- 0 CTS 38 [2404 0 0 0] 
s 24.680435222 _0_ MAC  --- 22 tcp 1112 [13a 1 0 800] ------- [0:0 2:0 32 1] [6 0] 0 0
r 24.689332055 _1_ MAC  --- 22 tcp 1060 [13a 1 0 800] ------- [0:0 2:0 32 1] [6 0] 1 0
s 24.689342055 _1_ MAC  --- 0 ACK 38 [0 0 0 0] 
r 24.689357055 _1_ RTR  --- 22 tcp 1060 [13a 1 0 800] ------- [0:0 2:0 32 1] [6 0] 1 0
f 24.689357055 _1_ RTR  --- 22 tcp 1060 [13a 1 0 800] ------- [0:0 2:0 31 2] [6 0] 1 0
r 24.689646889 _0_ MAC  --- 0 ACK 38 [0 0 0 0] 
s 24.689966719 _2_ MAC  --- 0 RTS 44 [5fe 1 2 0] 
r 24.690319382 _1_ MAC  --- 0 RTS 44 [5fe 1 2 0] 
s 24.690329382 _1_ MAC  --- 0 CTS 38 [4c4 2 0 0] 
r 24.690634045 _2_ MAC  --- 0 CTS 38 [4c4 2 0 0] 
s 24.690644045 _2_ MAC  --- 21 ack 112 [13a 1 2 800] ------- [2:0 0:0 32 1] [5 0] 0 0
r 24.691540709 _1_ MAC  --- 21 ack 60 [13a 1 2 800] ------- [2:0 0:0 32 1] [5 0] 1 0
s 24.691550709 _1_ MAC  --- 0 ACK 38 [0 2 0 0] 
r 24.691565709 _1_ RTR  --- 21 ack 60 [13a 1 2 800] ------- [2:0 0:0 32 1] [5 0] 1 0
f 24.691565709 _1_ RTR  --- 21 ack 60 [13a 1 2 800] ------- [2:0 0:0 31 0] [5 0] 1 0
r 24.691855372 _2_ MAC  --- 0 ACK 38 [0 2 0 0] 
s 24.691984709 _1_ MAC  --- 0 RTS 44 [253e 2 1 0] 
r 24.692337372 _2_ MAC  --- 0 RTS 44 [253e 2 1 0] 
s 24.692347372 _2_ MAC  --- 0 CTS 38 [2404 1 0 0] 
r 24.692652035 _1_ MAC  --- 0 CTS 38 [2404 1 0 0] 
s 24.692662035 _1_ MAC  --- 22 tcp 1112 [13a 2 1 800] ------- [0:0 2:0 31 2] [6 0] 1 0
r 24.701558699 _2_ MAC  --- 22 tcp 1060 [13a 2 1 800] ------- [0:0 2:0 31 2] [6 0] 2 0
s 24.701568699 _2_ MAC  --- 0 ACK 38 [0 1 0 0] 
r 24.701583699 _2_ AGT  --- 22 tcp 1060 [13a 2 1 800] ------- [0:0 2:0 31 2] [6 0] 2 0
s 24.701583699 _2_ AGT  --- 24 ack 40 [0 0 0 0] ------- [2:0 0:0 32 0] [6 0] 0 0
r 24.701583699 _2_ RTR  --- 24 ack 40 [0 0 0 0] ------- [2:0 0:0 32 0] [6 0] 0 0
s 24.701583699 _2_ RTR  --- 24 ack 60 [0 0 0 0] ------- [2:0 0:0 32 1] [6 0] 0 0
r 24.701873362 _1_ MAC  --- 0 ACK 38 [0 1 0 0] 
s 24.701982699 _2_ MAC  --- 0 RTS 44 [5fe 1 2 0] 
s 24.701983362 _1_ MAC  --- 0 RTS 44 [5fe 0 1 0] 
D 24.702336195 _0_ MAC  COL 0 RTS 44 [5fe 0 1 0] 
s 24.702830025 _2_ MAC  --- 0 RTS 44 [5fe 1 2 0] 
r 24.703182689 _1_ MAC  --- 0 RTS 44 [5fe 1 2 0] 
s 24.703192689 _1_ MAC  --- 0 CTS 38 [4c4 2 0 0] 
r 24.703497352 _2_ MAC  --- 0 CTS 38 [4c4 2 0 0] 
s 24.703507352 _2_ MAC  --- 24 ack 112 [13a 1 2 800] ------- [2:0 0:0 32 1] [6 0] 0 0
r 24.704404015 _1_ MAC  --- 24 ack 60 [13a 1 2 800] ------- [2:0 0:0 32 1] [6 0] 1 0
s 24.704414015 _1_ MAC  --- 0 ACK 38 [0 2 0 0] 
r 24.704429015 _1_ RTR  --- 24 ack 60 [13a 1 2 800] ------- [2:0 0:0 32 1] [6 0] 1 0
f 24.704429015 _1_ RTR  --- 24 ack 60 [13a 1 2 800] ------- [2:0 0:0 31 0] [6 0] 1 0
r 24.704718679 _2_ MAC  --- 0 ACK 38 [0 2 0 0] 
s 24.705058849 _0_ MAC  --- 0 RTS 44 [253e 1 0 0] 
r 24.705411682 _1_ MAC  --- 0 RTS 44 [253e 1 0 0] 
s 24.705421682 _1_ MAC  --- 0 CTS 38 [2404 0 0 0] 
r 24.705726515 _0_ MAC  --- 0 CTS 38 [2404 0 0 0] 
s 24.705736515 _0_ MAC  --- 23 tcp 1112 [13a 1 0 800] ------- [0:0 2:0 32 1] [7 0] 0 0
r 24.714633349 _1_ MAC  --- 23 tcp 1060 [13a 1 0 800] ------- [0:0 2:0 32 1] [7 0] 1 0
s 24.714643349 _1_ MAC  --- 0 ACK 38 [0 0 0 0] 
r 24.714658349 _1_ RTR  --- 23 tcp 1060 [13a 1 0 800] ------- [0:0 2:0 32 1] [7 0] 1 0
f 24.714658349 _1_ RTR  --- 23 tcp 1060 [13a 1 0 800] ------- [0:0 2:0 31 2] [7 0] 1 0
r 24.714948182 _0_ MAC  --- 0 ACK 38 [0 0 0 0] 
s 24.715637349 _1_ MAC  --- 0 RTS 44 [5fe 0 1 0] 
r 24.715990182 _0_ MAC  --- 0 RTS 44 [5fe 0 1 0] 
s 24.716000182 _0_ MAC  --- 0 CTS 38 [4c4 1 0 0] 
r 24.716305015 _1_ MAC  --- 0 CTS 38 [4c4 1 0 0] 
s 24.716315015 _1_ MAC  --- 21 ack 112 [13a 0 1 800] ------- [2:0 0:0 31 0] [5 0] 1 0
r 24.717211849 _0_ MAC  --- 21 ack 60 [13a 0 1 800] ------- [2:0 0:0 31 0] [5 0] 2 0
s 24.717221849 _0_ MAC  --- 0 ACK 38 [0 1 0 0] 
r 24.717236849 _0_ AGT  --- 21 ack 60 [13a 0 1 800] ------- [2:0 0:0 31 0] [5 0] 2 0
s 24.717236849 _0_ AGT  --- 25 tcp 1040 [0 0 0 0] ------- [0:0 2:0 32 0] [8 0] 0 0
r 24.717236849 _0_ RTR  --- 25 tcp 1040 [0 0 0 0] ------- [0:0 2:0 32 0] [8 0] 0 0
s 24.717236849 _0_ RTR  --- 25 tcp 1060 [0 0 0 0] ------- [0:0 2:0 32 1] [8 0] 0 0
r 24.717526682 _1_ MAC  --- 0 ACK 38 [0 1 0 0] 
s 24.717876682 _1_ MAC  --- 0 RTS 44 [5fe 0 1 0] 
r 24.718229515 _0_ MAC  --- 0 RTS 44 [5fe 0 1 0] 
s 24.718239515 _0_ MAC  --- 0 CTS 38 [4c4 1 0 0] 
r 24.718544349 _1_ MAC  --- 0 CTS 38 [4c4 1 0 0] 
s 24.718554349 _1_ MAC  --- 24 ack 112 [13a 0 1 800] ------- [2:0 0:0 31 0] [6 0] 1 0
r 24.719451182 _0_ MAC  --- 24 ack 60 [13a 0 1 800] ------- [2:0 0:0 31 0] [6 0] 2 0
s 24.719461182 _0_ MAC  --- 0 ACK 38 [0 1 0 0] 
r 24.719476182 _0_ AGT  --- 24 ack 60 [13a 0 1 800] ------- [2:0 0:0 31 0] [6 0] 2 0
s 24.719476182 _0_ AGT  --- 26 tcp 1040 [0 0 0 0] ------- [0:0 2:0 32 0] [9 0] 0 0
r 24.719476182 _0_ RTR  --- 26 tcp 1040 [0 0 0 0] ------- [0:0 2:0 32 0] [9 0] 0 0
s 24.719476182 _0_ RTR  --- 26 tcp 1060 [0 0 0 0] ------- [0:0 2:0 32 1] [9 0] 0 0
r 24.719766015 _1_ MAC  --- 0 ACK 38 [0 1 0 0] 
s 24.720055182 _0_ MAC  --- 0 RTS 44 [253e 1 0 0] 
r 24.720408015 _1_ MAC  --- 0 RTS 44 [253e 1 0 0] 
s 24.720418015 _1_ MAC  --- 0 CTS 38 [2404 0 0 0] 
r 24.720722849 _0_ MAC  --- 0 CTS 38 [2404 0 0 0] 
s 24.720732849 _0_ MAC  --- 25 tcp 1112 [13a 1 0 800] ------- [0:0 2:0 32 1] [8 0] 0 0
r 24.729629682 _1_ MAC  --- 25 tcp 1060 [13a 1 0 800] ------- [0:0 2:0 32 1] [8 0] 1 0
s 24.729639682 _1_ MAC  --- 0 ACK 38 [0 0 0 0] 
r 24.729654682 _1_ RTR  --- 25 tcp 1060 [13a 1 0 800] ------- [0:0 2:0 32 1] [8 0] 1 0
f 24.729654682 _1_ RTR  --- 25 tcp 1060 [13a 1 0 800] ------- [0:0 2:0 31 2] [8 0] 1 0
r 24.729944515 _0_ MAC  --- 0 ACK 38 [0 0 0 0] 
s 24.730073682 _1_ MAC  --- 0 RTS 44 [253e 2 1 0] 
r 24.730426345 _2_ MAC  --- 0 RTS 44 [253e 2 1 0] 
s 24.730436345 _2_ MAC  --- 0 CTS 38 [2404 1 0 0] 
r 24.730741009 _1_ MAC  --- 0 CTS 38 [2404 1 0 0] 
s 24.730751009 _1_ MAC  --- 23 tcp 1112 [13a 2 1 800] ------- [0:0 2:0 31 2] [7 0] 1 0
r 24.739647672 _2_ MAC  --- 23 tcp 1060 [13a 2 1 800] ------- [0:0 2:0 31 2] [7 0] 2 0
s 24.739657672 _2_ MAC  --- 0 ACK 38 [0 1 0 0] 
r 24.739672672 _2_ AGT  --- 23 tcp 1060 [13a 2 1 800] ------- [0:0 2:0 31 2] [7 0] 2 0
s 24.739672672 _2_ AGT  --- 27 ack 40 [0 0 0 0] ------- [2:0 0:0 32 0] [7 0] 0 0
r 24.739672672 _2_ RTR  --- 27 ack 40 [0 0 0 0] ------- [2:0 0:0 32 0] [7 0] 0 0
s 24.739672672 _2_ RTR  --- 27 ack 60 [0 0 0 0] ------- [2:0 0:0 32 1] [7 0] 0 0
r 24.739962335 _1_ MAC  --- 0 ACK 38 [0 1 0 0] 
s 24.740052335 _1_ MAC  --- 0 RTS 44 [253e 2 1 0] 
r 24.740404999 _2_ MAC  --- 0 RTS 44 [253e 2 1 0] 
s 24.740414999 _2_ MAC  --- 0 CTS 38 [2404 1 0 0] 
r 24.740719662 _1_ MAC  --- 0 CTS 38 [2404 1 0 0] 
s 24.740729662 _1_ MAC  --- 25 tcp 1112 [13a 2 1 800] ------- [0:0 2:0 31 2] [8 0] 1 0
r 24.749626325 _2_ MAC  --- 25 tcp 1060 [13a 2 1 800] ------- [0:0 2:0 31 2] [8 0] 2 0
s 24.749636325 _2_ MAC  --- 0 ACK 38 [0 1 0 0] 
r 24.749651325 _2_ AGT  --- 25 tcp 1060 [13a 2 1 800] ------- [0:0 2:0 31 2] [8 0] 2 0
s 24.749651325 _2_ AGT  --- 28 ack 40 [0 0 0 0] ------- [2:0 0:0 32 0] [8 0] 0 0
r 24.749651325 _2_ RTR  --- 28 ack 40 [0 0 0 0] ------- [2:0 0:0 32 0] [8 0] 0 0